# vtk DataFile Version 2.0
world pressure data
ASCII
DATASET UNSTRUCTURED_GRID
POINTS 4 double
0.0 0.0 0.0
1.0 0.0 0.0
0.0 -1.0 0.0
1.0 -1.0 0.0
CELLS 2 157608
3 0 1 3
3 2 0 3
POINT_DATA 4
SCALARS mean double
LOOKUP_TABLE default
1
1
0
-1
POINT_DATA 4
SCALARS variance double
LOOKUP_TABLE default
1
1
1
1